# vtk DataFile Version 2.0
Generated by Milena 1.0  http://olena.lrde.epita.fr
ASCII
DATASET POLYDATA

POINTS 4 float
0 0 2
1.63299 -0.942809 -0.666667
0 1.88562 -0.666667
-1.63299 -0.942809 -0.666667

VERTICES 4 8
1 0
1 1
1 2
1 3

LINES 6 18
2 1 0
2 0 3
2 3 1
2 2 0
2 1 2
2 2 3

POLYGONS 4 16
3 1 0 3
3 2 0 1
3 3 0 2
3 3 2 1

CELL_DATA 14
SCALARS values bit
LOOKUP_TABLE default
1
1
1
1
1
1
1
1
1
1
1
1
1
1
